37
	Energy:      70.4445505
C          0.21136        1.03330       -0.25327
C         -0.62179        2.07535       -0.18479
C         -0.19284        3.49084        0.05825
O         -1.01514        4.38728       -0.03598
C          1.21951        3.87184        0.41647
C         -2.03021        1.64531       -0.54874
C         -1.94711        0.11747       -0.22653
C         -0.49601       -0.22048       -0.64620
C         -3.21278        2.31879        0.19214
C         -2.09700       -0.18601        1.32104
C         -2.16935       -1.71426        1.55794
C         -3.33719        0.52793        1.93288
C         -3.22197        2.03969        1.68590
C         -3.48106        0.29752        3.44965
C         -2.22760        1.90792       -2.06262
H          1.28287        1.08147       -0.14281
H         -2.73776       -0.46206       -0.75313
H         -0.07278       -1.12872       -0.18066
H         -0.39100       -0.32940       -1.74591
H          1.91025        3.01540        0.50425
H          1.21607        4.39703        1.39459
H          1.62042        4.56033       -0.35662
H         -4.16916        1.92921       -0.22465
H         -3.21911        3.41393        0.02050
H         -1.20703        0.20839        1.86225
H         -3.07845       -2.13587        1.07855
H         -2.18518       -1.95934        2.63712
H         -1.29059       -2.25081        1.15695
H         -4.26339        0.15065        1.44297
H         -4.10249        2.55842        2.12548
H         -2.30369        2.45162        2.16036
H         -2.57197        0.64142        3.98826
H         -3.66747       -0.76746        3.68886
H         -4.35713        0.85979        3.83816
H         -1.42779        1.45217       -2.68151
H         -2.22453        2.99999       -2.26916
H         -3.19844        1.49052       -2.40611
